 +---------------------------------------------------------------+
 |                                                               |
 |        ####### #     # ####### ####### ####### ######         |
 |        #     # ##    # #          #    #       #     #        |
 |        #     # # #   # #          #    #       #     #        |
 |        #     # #  #  # #####      #    #####   ######         |
 |        #     # #   # # #          #    #       #              |
 |        #     # #    ## #          #    #       #              |
 |        ####### #     # #######    #    ####### #              |
 |                                                               |
 |        Linear-Scaling Ab Initio Total Energy Program          |
 |                                                               |
 |          Release for academic collaborators of ODG            |
 |                                             Version 4.3.3.4   |
 |                                                               |
 +---------------------------------------------------------------+
 |                                                               |
 |  Authors:                                                     |
 |  Jacek Dziedzic, Peter D. Haynes, Nicholas D. M. Hine,        |
 |  Arash. A. Mostofi, Mike C. Payne and Chris-Kriton Skylaris   |
 |                                                               |
 |  Contributors:                                                |
 |  J. Aarons, L. Andrinopoulos, P. W. Avraam, R. A. Bell,       |
 |  S. J. Clark, G. C. Constantinescu, F. Corsetti, N. Corsini,  |
 |  O. Dieguez, S. M. M. Dubois,  J. M. Escartin, H. H. Helal,   |
 |  Q. O. Hill, L. P. Lee, J.-H. Li, G. Moynihan, D. D. O`Regan, |
 |  O. K. Okan, M. J. S. Phipps, C. J. Pickard, M. I. J. Probert,|
 |  L. Ratcliff, M. Robinson, A. Ruiz Serrano, J. S. Spencer,    |
 |  E. W. Tait, G. Teobaldi, D. Turban, V. Vitale,               |
 |  K. A. Wilkinson, J. C. Womack and T. J. Zuehlsdorff          |
 |                                                               |
 |                                   Copyright (c) 2004-2015     |
 |                                                               |
 |  Please cite:                                                 |
 |  "Introducing ONETEP: Linear-scaling density functional       |
 |   simulations on parallel computers".                         |
 |   C.-K. Skylaris, P. D. Haynes, A. A. Mostofi, M. C. Payne.   |
 |   J. Chem. Phys. 122 084119 (2005).                           |
 |                                                               |
 |          in all publications arising from your use of ONETEP. |
 |                                                               |
 +---------------------------------------------------------------+
 |                                                               |
 |   ONETEP is based on developments described in the following  |
 |   publications:                                               |
 |                                                               |
 |  "Nonorthogonal generalized Wannier function pseudopotential  |
 |   plane-wave method".                                         |
 |   C.-K. Skylaris, A. A. Mostofi, P. D. Haynes, O. Dieguez,    |
 |   M. C. Payne.                                                |
 |   Phys. Rev. B 66 035119 (2002).                              |
 |                                                               |
 |  "Preconditioned iterative minimization for linear-scaling    |
 |   electronic structure calculations".                         |
 |   A. A. Mostofi, P. D. Haynes, C.-K. Skylaris, M. C. Payne.   |
 |   J. Chem. Phys. 119(17), pp.8842-8848 (2003).                |
 |                                                               |
 |  "Total-energy calculations on a real space grid with         |
 |   localized functions and a plane-wave basis".                |
 |   A. A. Mostofi, C.-K. Skylaris, P. D. Haynes, M. C. Payne.   |
 |   Comput. Phys. Commun. 147, pp.788-802 (2002).               |
 |                                                               |
 |  "Accurate kinetic energy evaluation in electronic structure  |
 |   calculations with localized functions on real space grids"  |
 |   C.-K. Skylaris, A. A. Mostofi, P. D. Haynes, C. J. Pickard, |
 |   M. C. Payne.                                                |
 |   Comput. Phys. Commun. 140, pp.315-322 (2001).               |
 |                                                               |
 |  "Accurate ionic forces and geometry optimization in linear-  |
 |   scaling density-functional theory with local orbitals"      |
 |   N. D. M. Hine, M. Robinson, P. D. Haynes, C.-K. Skylaris,   |
 |   M. C. Payne, and A. A. Mostofi.                             |
 |   Phys. Rev. B 83 195102 (2011).                              |
 |                                                               |
 +---------------------------------------------------------------+

Job started: 25-04-2016 20:43 (+0100)
 
If your calculation crashes here, before "Reading parameters..."
is displayed, then your stack size is insufficient.
If so, use "ulimit -s unlimited" at runtime.

Reading parameters from file "WMoS2.dat" ...... done

Checking processes and threads...
   Determining the default number of threads...
      No default threads set at compilation time: defaulting to 1.
      OpenMP library call suggests 4 threads.
      Hybrid MPI-OpenMP compilation detected.
      Number of MPI processes > 1.
      OMP_NUM_THREADS environment variable present and
      its value matches the one obtained from the OpenMP library call.
      Using this value as default.
      Default threads: 4
      Default applies to threads_max and threads_num_fftboxes.
      Settings in the input file override this default.
   ... done

   Running with 32 MPI processes.
   There are 4 MPI processes running on the same node as the root process.
   Each MPI process is using: 
               1 threads for simulation cell FFTs.
               1 threads for parallel FFT box operations.
               4 threads for loops over batched FFT box operations.
               4 threads in other parallel regions.
... done

Basic input checks...... done

Reading geometry and species blocks from file "WMoS2.dat" ...
  <species_atomic_set> block not found: NGWF initialisation set to SOLVE
    
  Number of PPD points along a3 set to 1.  This is 
  the default value, it may have been provided also in the input file.
... done


--------------------------------------------------------------------------------
---------------------------------- INPUT FILE ----------------------------------
--------------------------------------------------------------------------------

task                : geometryoptimization                                      
output_detail       : verbose                                                   
do_properties       : T                                                         
cutoff_energy       : 1200 eV                                                   
fine_grid_scale     : 2                                                         
num_eigenvalues     : 100                                                       
spin_polarized      : F                                                         
dos_smear           : 0.1 eV                                                    
xc_functional       : PBE                                                       
paw                 : T                                                         
edft                : F                                                         
write_forces        : F                                                         
elec_energy_tol     : 0.00002 hartree                                           
ngwf_threshold_orig : 0.0000008                                                 
%block lattice_cart                                                             
ang                                                                             
87.821904146972358   0.000000000000023   0.000000000000000                      
0.000000000000000  15.845000000000001   0.000000000000000                       
0.000000000000000   0.000000000000000  14.324000000000000                       
%endblock lattice_cart                                                          
%block species                                                                  
W   W  74 -1 13.0                                                               
Mo  Mo 42 -1 13.0                                                               
S   S  16 -1 13.0                                                               
%endblock species                                                               
%block species_pot                                                              
W  "/home/theory/phukgm/paw/W.PBE-paw.abinit"                                   
Mo "/home/theory/phukgm/paw/Mo.PBE-paw.abinit"                                  
S  "/home/theory/phukgm/paw/S.PBE-paw.abinit"                                   
%endblock species_pot                                                           
%block positions_abs                                                            
     Hash =  -000004121881611560003101
%endblock positions_abs                                                         

--------------------------------------------------------------------------------
-------------------------------- END INPUT FILE --------------------------------
--------------------------------------------------------------------------------


 
<<<<<<<<<<<<<<<<<<<<<<<<<<< PAW Dataset information >>>>>>>>>>>>>>>>>>>>>>>>>>>
File: /home/theory/phukgm/paw/W.PBE-paw.abinit; rc = 2.41 bohr; shape type =  3; rshape = 2.41 bohr;
  Atomic number: 74;  ionic charge: 14.000000
    Partial Wave 1: l = 0
    Partial Wave 2: l = 0
    Partial Wave 3: l = 1
    Partial Wave 4: l = 1
    Partial Wave 5: l = 2
    Partial Wave 6: l = 2
  Core charge supplied for Nonlinear Core Corrections
File: /home/theory/phukgm/paw/S.PBE-paw.abinit; rc = 1.92 bohr; shape type =  2; rshape = 1.60 bohr;
  Atomic number: 16;  ionic charge:  6.000000
    Partial Wave 1: l = 0
    Partial Wave 2: l = 0
    Partial Wave 3: l = 1
    Partial Wave 4: l = 1
  Core charge supplied for Nonlinear Core Corrections
File: /home/theory/phukgm/paw/Mo.PBE-paw.abinit; rc = 2.20 bohr; shape type =  2; rshape = 2.20 bohr;
  Atomic number: 42;  ionic charge: 14.000000
    Partial Wave 1: l = 0
    Partial Wave 2: l = 0
    Partial Wave 3: l = 1
    Partial Wave 4: l = 1
    Partial Wave 5: l = 2
    Partial Wave 6: l = 2
  Core charge supplied for Nonlinear Core Corrections
<<<<<<<<<<<<<<<<<<<<<<<<<<<<<<<<<<<<<<< >>>>>>>>>>>>>>>>>>>>>>>>>>>>>>>>>>>>>>>

-------------------------- Atom counting information ---------------------------
Symbol    Natoms    Nngwfs    Nprojs
  W         80      1040      1440
  S        320      1280      2560
  Mo        80      1040      1440
.......   ......    ......    ......
Totals:    480      3360      5440
--------------------------------------------------------------------------------

=============================== PSINC grid sizes ===============================
                      Simulation cell:  400 x  75 x  65
                              FFT-box:  189 x  75 x  65
                                  PPD:    5 x   5 x   1
Grid space d1=  0.414898531810a0 (KE cutoff=  44.12861Eh =1200.80046eV)
Grid space d2=  0.399236298378a0 (KE cutoff=  47.65889Eh =1296.86450eV)
Grid space d3=  0.416437658419a0 (KE cutoff=  43.80302Eh =1191.94070eV)
================================================================================

********************* Fourier parallelisation information **********************
       Coarse grid (whole simulation cell) dimensions:    400    75    65
          Real-space ('12') slabs/node (min max mean):      2     3     2
         Recip-space ('23') slabs/node (min max mean):      6     7     6
********************************************************************************

********************* Fourier parallelisation information **********************
       Double grid (whole simulation cell) dimensions:    800   150   130
          Real-space ('12') slabs/node (min max mean):      4     5     4
         Recip-space ('23') slabs/node (min max mean):     12    13    12
********************************************************************************

Atom SCF Calculation for W  : Z (AE atom) =  74 : Z (PS atom) =  14
Config String: 5s2.0 5p6.0 5d4.0 6s2.0 6p0.0
Orbitals (num,occ):  5     2.00 6.00 4.00 2.00 0.00
Orbitals   (num,l):  5        0    1    2    0    1
Real-space Grid (nr,dr,rmax): 2393    0.0054347826   13.0000000000
Spherical Bessel Basis (nsws,lmax,cutoff):   37    4  264.5927584166
Confining potential (l,width,scale):  0    3.0000000000  100.0000000000
Confining potential (l,width,scale):  1    3.0000000000  100.0000000000
Confining potential (l,width,scale):  2    3.0000000000  100.0000000000
  1  -69.6942868424  -14.6552952309   55.2906472341   -7.1582918556
  2  -68.7098463016  -16.4342451961   53.2596487009   -6.9433603652
  3  -68.6704715346  -16.2825039011   53.3767691910   -6.9526840403
  4  -68.6174849777  -16.4040884880   53.2525407507   -6.9666648170
  5  -68.6130573781  -16.4083632922   53.2479731436   -6.9776932723
  6  -68.6115258332  -16.4120379937   53.2445817139   -6.9845142663
  7  -68.6116633285  -16.4125570034   53.2443597995   -6.9885326788
  8  -68.6120643953  -16.4123272913   53.2447976176   -6.9908166806
  9  -68.6124194694  -16.4119541637   53.2452983563   -6.9920871282
 10  -68.6126506952  -16.4116670718   53.2456573840   -6.9927810627
 11  -68.6127874153  -16.4114702718   53.2458926287   -6.9931556639
 12  -68.6128643097  -16.4113430904   53.2460396503   -6.9933562795
 13  -68.6129059148  -16.4112648092   53.2461278894   -6.9934630386
 14  -68.6129275822  -16.4112184565   53.2461791009   -6.9935195320
 15  -68.6129385277  -16.4111915904   53.2462082688   -6.9935492884
 16  -68.6129438989  -16.4111762442   53.2462246698   -6.9935649023
 17  -68.6129464552  -16.4111675683   53.2462338095   -6.9935730692
 18  -68.6129476287  -16.4111627004   53.2462388700   -6.9935773295
 19  -68.6129481425  -16.4111599845   53.2462416589   -6.9935795468
 20  -68.6129483521  -16.4111584757   53.2462431908   -6.9935806984
 21  -68.6129484275  -16.4111576401   53.2462440302   -6.9935812954
Atom SCF converged after  21 iterations to a total energy of    -68.61294843

Atom SCF Calculation for Mo : Z (AE atom) =  42 : Z (PS atom) =  14
Config String: 4s2.0 4p6.0 4d5.0 5s1.0 5p0.0
Orbitals (num,occ):  5     2.00 6.00 5.00 1.00 0.00
Orbitals   (num,l):  5        0    1    2    0    1
Real-space Grid (nr,dr,rmax): 2393    0.0054347826   13.0000000000
Spherical Bessel Basis (nsws,lmax,cutoff):   37    4  264.5927584166
Confining potential (l,width,scale):  0    3.0000000000  100.0000000000
Confining potential (l,width,scale):  1    3.0000000000  100.0000000000
Confining potential (l,width,scale):  2    3.0000000000  100.0000000000
  1  -66.6421761884  -14.3542984712   55.2906472341   -3.7688385884
  2  -68.3514334408  -12.4102511879   56.9934626095   -3.5598574353
  3  -67.6286632910  -15.1771709332   54.2778184423   -3.5491315178
  4  -68.4938815911  -13.4621455950   55.9733901907   -3.5921734164
  5  -68.2574521117  -14.2691966208   55.1901814770   -3.6099472005
  6  -68.4119341195  -13.9905607061   55.4707507821   -3.6214775399
  7  -68.4090245695  -14.0505877544   55.4151380968   -3.6260364826
  8  -68.4228702505  -14.0463213204   55.4212481247   -3.6287550943
  9  -68.4289643783  -14.0457561374   55.4227036688   -3.6300366686
 10  -68.4331330153  -14.0453418720   55.4237132965   -3.6309000608
 11  -68.4359785982  -14.0450604431   55.4243939820   -3.6314827118
 12  -68.4379215546  -14.0448711376   55.4248515381   -3.6318765400
 13  -68.4392492093  -14.0447431182   55.4251600633   -3.6321431377
 14  -68.4401571518  -14.0446557735   55.4253690322   -3.6323238581
 15  -68.4407785335  -14.0445956228   55.4255112302   -3.6324465198
 16  -68.4412040844  -14.0445538312   55.4256084294   -3.6325298709
 17  -68.4414956955  -14.0445245599   55.4256751535   -3.6325865685
 18  -68.4416956281  -14.0445039105   55.4257211403   -3.6326251718
 19  -68.4418327670  -14.0444892527   55.4257529517   -3.6326514769
 20  -68.4419268709  -14.0444787929   55.4257750321   -3.6326694149
 21  -68.4419914659  -14.0444712960   55.4257904055   -3.6326816549
 22  -68.4420358177  -14.0444659034   55.4258011393   -3.6326900115
 23  -68.4420662772  -14.0444620134   55.4258086527   -3.6326957193
 24  -68.4420871996  -14.0444592011   55.4258139238   -3.6326996195
 25  -68.4421015732  -14.0444571644   55.4258176293   -3.6327022853
 26  -68.4421114487  -14.0444556876   55.4258202390   -3.6327041079
 27  -68.4421182341  -14.0444546159   55.4258220798   -3.6327053541
 28  -68.4421228966  -14.0444538377   55.4258233802   -3.6327062064
 29  -68.4421261003  -14.0444532726   55.4258242999   -3.6327067893
 30  -68.4421283015  -14.0444528620   55.4258249512   -3.6327071879
 31  -68.4421298139  -14.0444525639   55.4258254127   -3.6327074605
 32  -68.4421308528  -14.0444523473   55.4258257401   -3.6327076469
 33  -68.4421315665  -14.0444521901   55.4258259726   -3.6327077744
 34  -68.4421320567  -14.0444520761   55.4258261377   -3.6327078615
 35  -68.4421323933  -14.0444519933   55.4258262550   -3.6327079211
 36  -68.4421326244  -14.0444519333   55.4258263385   -3.6327079617
 37  -68.4421327831  -14.0444518898   55.4258263979   -3.6327079895
 38  -68.4421328920  -14.0444518583   55.4258264401   -3.6327080085
 39  -68.4421329667  -14.0444518355   55.4258264702   -3.6327080214
Atom SCF converged after  39 iterations to a total energy of    -68.44213297

Atom SCF Calculation for S  : Z (AE atom) =  16 : Z (PS atom) =   6
Config String: 3s2.0 3p4.0
Orbitals (num,occ):  2     2.00 4.00
Orbitals   (num,l):  2        0    1
Real-space Grid (nr,dr,rmax): 2393    0.0054347826   13.0000000000
Spherical Bessel Basis (nsws,lmax,cutoff):   37    2  264.5927584166
Confining potential (l,width,scale):  0    3.0000000000  100.0000000000
Confining potential (l,width,scale):  1    3.0000000000  100.0000000000
  1  -16.0999871275   -1.0565304100   10.1554250022   -3.3242624101
  2  -10.8342362549   -2.7492324846    7.9467871711   -2.6203293515
  3  -10.6784634056   -2.3516148291    8.3300855004   -2.7812100621
  4  -10.4257375616   -2.3292935441    8.3486848234   -2.7932360017
  5  -10.3029526565   -2.3144313169    8.3620259013   -2.8014179861
  6  -10.2404784444   -2.3066065349    8.3690866055   -2.8059587293
  7  -10.2083152469   -2.3026791163    8.3725951384   -2.8083681232
  8  -10.1917063798   -2.3007304915    8.3743077607   -2.8096300707
  9  -10.1831206055   -2.2997668279    8.3751380091   -2.8102877259
 10  -10.1786798904   -2.2992908123    8.3755389807   -2.8106295952
 11  -10.1763817106   -2.2990558626    8.3757320005   -2.8108070105
 12  -10.1751923512   -2.2989397260    8.3758248998   -2.8108990427
 13  -10.1745763880   -2.2988823506    8.3758694709   -2.8109467265
 14  -10.1742575944   -2.2988538849    8.3758909373   -2.8109714499
 15  -10.1740924957   -2.2988398287    8.3759011853   -2.8109842379
 16  -10.1740068556   -2.2988329304    8.3759060145   -2.8109908373
 17  -10.1739624870   -2.2988295101    8.3759083174   -2.8109942534
 18  -10.1739394980   -2.2988278109    8.3759094156   -2.8109960211
 19  -10.1739275833   -2.2988269661    8.3759099380   -2.8109969353
 20  -10.1739214068   -2.2988265457    8.3759101860   -2.8109974078
 21  -10.1739182043   -2.2988263362    8.3759103035   -2.8109976520
 22  -10.1739165436   -2.2988262316    8.3759103591   -2.8109977781
 23  -10.1739156823   -2.2988261793    8.3759103854   -2.8109978433
 24  -10.1739152355   -2.2988261531    8.3759103978   -2.8109978769
 25  -10.1739150038   -2.2988261399    8.3759104037   -2.8109978943
 26  -10.1739148835   -2.2988261333    8.3759104065   -2.8109979032
 27  -10.1739148211   -2.2988261299    8.3759104078   -2.8109979078
Atom SCF converged after  27 iterations to a total energy of    -10.17391482

================================================================================
<<<<<<<<<<<<<<<<<<<< Starting ONETEP Geometry Optimisation >>>>>>>>>>>>>>>>>>>>>
================================================================================

 Geometry Optimisation: output file is "WMoS2.geom"
 
 
                           -------------------------------
                                     Cell Contents
                           -------------------------------
 
            xxxxxxxxxxxxxxxxxxxxxxxxxxxxxxxxxxxxxxxxxxxxxxxxxxxxxxxxxxxx
            x  Element    Atom      Absolute co-ordinates of atoms     x
            x            Number        x           y           z       x
            x----------------------------------------------------------x
            x    W         1        1.728744    2.994272    5.822249   x
            x    W         2      131.384535   17.965633    5.822249   x
            x    W         3       27.659902   23.954178    5.822249   x
            x    W         4       12.101207   20.959906    5.822249   x
            x    W         5      152.129462   11.977089    5.822249   x
            x    W         6      136.570767    8.982817    5.822249   x
            x    W         7       32.846134   14.971361    5.822249   x
            x    W         8      162.501925   29.942722    5.822249   x
            x    W         9       17.287439   11.977089    5.822249   x
            x    W        10        1.728744    8.982817    5.822249   x
            x    W        11      157.315693    2.994272    5.822249   x
            x    W        12       27.659902    0.000000    5.822249   x
            x    W        13       12.101207   26.948450    5.822249   x
            x    W        14       38.032365    5.988544    5.822249   x
            x    W        15      152.129462   23.954178    5.822249   x
            x    W        16       22.473670    2.994272    5.822249   x
            x    W        17      136.570767   14.971361    5.822249   x
            x    W        18       32.846134   20.959906    5.822249   x
            x    W        19       17.287439   17.965633    5.822249   x
            x    W        20        1.728744   14.971361    5.822249   x
            x    W        21      157.315693    8.982817    5.822249   x
            x    W        22      141.756998    5.988544    5.822249   x
            x    W        23      126.198303    2.994272    5.822249   x
            x    W        24      152.129462   17.965633    5.822249   x
            x    W        25       38.032365   11.977089    5.822249   x
            x    W        26       22.473670    8.982817    5.822249   x
            x    W        27        6.914976    5.988544    5.822249   x
            x    W        28      136.570767   20.959906    5.822249   x
            x    W        29       32.846134   26.948450    5.822249   x
            x    W        30       17.287439   23.954178    5.822249   x
            x    W        31        1.728744   20.959906    5.822249   x
            x    W        32      141.756998   29.942722    5.822249   x
            x    W        33      157.315693   14.971361    5.822249   x
            x    W        34      141.756998   11.977089    5.822249   x
            x    W        35      126.198303    8.982817    5.822249   x
            x    W        36       38.032365   17.965633    5.822249   x
            x    W        37       22.473670   14.971361    5.822249   x
            x    W        38        6.914976   11.977089    5.822249   x
            x    W        39      136.570767   26.948450    5.822249   x
            x    W        40      162.501925    5.988544    5.822249   x
            x    W        41      146.943230    2.994272    5.822249   x
            x    W        42      141.756998   23.954178    5.822249   x
            x    W        43       17.287439   29.942722    5.822249   x
            x    W        44        1.728744   26.948450    5.822249   x
            x    W        45       27.659902    5.988544    5.822249   x
            x    W        46      157.315693   20.959906    5.822249   x
            x    W        47      152.129462   29.942722    5.822249   x
            x    W        48       12.101207    2.994272    5.822249   x
            x    W        49      126.198303   14.971361    5.822249   x
            x    W        50       38.032365   23.954178    5.822249   x
            x    W        51       22.473670   20.959906    5.822249   x
            x    W        52      141.756998   17.965633    5.822249   x
            x    W        53        6.914976   17.965633    5.822249   x
            x    W        54      162.501925   11.977089    5.822249   x
            x    W        55      146.943230    8.982817    5.822249   x
            x    W        56      131.384535    5.988544    5.822249   x
            x    W        57       27.659902   11.977089    5.822249   x
            x    W        58      157.315693   26.948450    5.822249   x
            x    W        59       12.101207    8.982817    5.822249   x
            x    W        60      126.198303   20.959906    5.822249   x
            x    W        61      131.384535   29.942722    5.822249   x
            x    W        62       38.032365   29.942722    5.822249   x
            x    W        63       22.473670   26.948450    5.822249   x
            x    W        64        6.914976   23.954178    5.822249   x
            x    W        65      162.501925   17.965633    5.822249   x
            x    W        66      146.943230   26.948450    5.822249   x
            x    W        67      146.943230   14.971361    5.822249   x
            x    W        68      131.384535   11.977089    5.822249   x
            x    W        69      131.384535   23.954178    5.822249   x
            x    W        70       27.659902   17.965633    5.822249   x
            x    W        71       12.101207   14.971361    5.822249   x
            x    W        72      126.198303   26.948450    5.822249   x
            x    W        73      152.129462    5.988544    5.822249   x
            x    W        74      136.570767    2.994272    5.822249   x
            x    W        75      146.943230   20.959906    5.822249   x
            x    W        76        6.914976    0.000000    5.822249   x
            x    W        77       32.846134    8.982817    5.822249   x
            x    W        78      162.501925   23.954178    5.822249   x
            x    W        79       17.287439    5.988544    5.822249   x
            x    W        80       32.846134    2.994272    5.822249   x
            x    S        81        3.457488   29.942722    2.852902   x
            x    S        82        3.457488   29.942722    8.791595   x
            x    S        83      133.113279   14.971361    2.852902   x
            x    S        84       29.388646   20.959906    2.852902   x
            x    S        85       13.829951   17.965633    2.852902   x
            x    S        86      153.858206    8.982817    2.852902   x
            x    S        87      138.299511    5.988544    2.852902   x
            x    S        88       34.574878   11.977089    2.852902   x
            x    S        89      164.230669   26.948450    2.852902   x
            x    S        90       19.016183    8.982817    2.852902   x
            x    S        91        3.457488    5.988544    2.852902   x
            x    S        92      159.044437   29.942722    2.852902   x
            x    S        93       29.388646   26.948450    2.852902   x
            x    S        94       13.829951   23.954178    2.852902   x
            x    S        95       39.761109    2.994272    2.852902   x
            x    S        96      153.858206   20.959906    2.852902   x
            x    S        97       24.202414   29.942722    2.852902   x
            x    S        98      138.299511   11.977089    2.852902   x
            x    S        99       34.574878   17.965633    2.852902   x
            x    S       100       19.016183   14.971361    2.852902   x
            x    S       101        3.457488   11.977089    2.852902   x
            x    S       102      159.044437    5.988544    2.852902   x
            x    S       103      143.485742    2.994272    2.852902   x
            x    S       104      127.927047   29.942722    2.852902   x
            x    S       105      153.858206   14.971361    2.852902   x
            x    S       106       39.761109    8.982817    2.852902   x
            x    S       107       24.202414    5.988544    2.852902   x
            x    S       108        8.643719    2.994272    2.852902   x
            x    S       109      138.299511   17.965633    2.852902   x
            x    S       110       34.574878   23.954178    2.852902   x
            x    S       111       19.016183   20.959906    2.852902   x
            x    S       112        3.457488   17.965633    2.852902   x
            x    S       113      143.485742   26.948450    2.852902   x
            x    S       114      159.044437   11.977089    2.852902   x
            x    S       115      143.485742    8.982817    2.852902   x
            x    S       116      127.927047    5.988544    2.852902   x
            x    S       117       39.761109   14.971361    2.852902   x
            x    S       118       24.202414   11.977089    2.852902   x
            x    S       119        8.643719    8.982817    2.852902   x
            x    S       120      138.299511   23.954178    2.852902   x
            x    S       121      164.230669    2.994272    2.852902   x
            x    S       122      148.671974   29.942722    2.852902   x
            x    S       123      143.485742   20.959906    2.852902   x
            x    S       124       19.016183   26.948450    2.852902   x
            x    S       125        3.457488   23.954178    2.852902   x
            x    S       126       29.388646    2.994272    2.852902   x
            x    S       127      159.044437   17.965633    2.852902   x
            x    S       128      153.858206   26.948450    2.852902   x
            x    S       129       13.829951    0.000000    2.852902   x
            x    S       130      127.927047   11.977089    2.852902   x
            x    S       131       39.761109   20.959906    2.852902   x
            x    S       132       24.202414   17.965633    2.852902   x
            x    S       133      143.485742   14.971361    2.852902   x
            x    S       134        8.643719   14.971361    2.852902   x
            x    S       135      164.230669    8.982817    2.852902   x
            x    S       136      148.671974    5.988544    2.852902   x
            x    S       137      133.113279    2.994272    2.852902   x
            x    S       138       29.388646    8.982817    2.852902   x
            x    S       139      159.044437   23.954178    2.852902   x
            x    S       140       13.829951    5.988544    2.852902   x
            x    S       141      127.927047   17.965633    2.852902   x
            x    S       142      133.113279   26.948450    2.852902   x
            x    S       143       39.761109   26.948450    2.852902   x
            x    S       144       24.202414   23.954178    2.852902   x
            x    S       145        8.643719   20.959906    2.852902   x
            x    S       146      164.230669   14.971361    2.852902   x
            x    S       147      148.671974   23.954178    2.852902   x
            x    S       148      148.671974   11.977089    2.852902   x
            x    S       149      133.113279    8.982817    2.852902   x
            x    S       150      133.113279   20.959906    2.852902   x
            x    S       151       29.388646   14.971361    2.852902   x
            x    S       152       13.829951   11.977089    2.852902   x
            x    S       153      127.927047   23.954178    2.852902   x
            x    S       154      153.858206    2.994272    2.852902   x
            x    S       155      138.299511   29.942722    2.852902   x
            x    S       156      148.671974   17.965633    2.852902   x
            x    S       157        8.643719   26.948450    2.852902   x
            x    S       158       34.574878    5.988544    2.852902   x
            x    S       159      164.230669   20.959906    2.852902   x
            x    S       160       19.016183    2.994272    2.852902   x
            x    S       161       34.574878    0.000000    2.852902   x
            x    S       162      133.113279   14.971361    8.791595   x
            x    S       163       29.388646   20.959906    8.791595   x
            x    S       164       13.829951   17.965633    8.791595   x
            x    S       165      153.858206    8.982817    8.791595   x
            x    S       166      138.299511    5.988544    8.791595   x
            x    S       167       34.574878   11.977089    8.791595   x
            x    S       168      164.230669   26.948450    8.791595   x
            x    S       169       19.016183    8.982817    8.791595   x
            x    S       170        3.457488    5.988544    8.791595   x
            x    S       171      159.044437   29.942722    8.791595   x
            x    S       172       29.388646   26.948450    8.791595   x
            x    S       173       13.829951   23.954178    8.791595   x
            x    S       174       39.761109    2.994272    8.791595   x
            x    S       175      153.858206   20.959906    8.791595   x
            x    S       176       24.202414   29.942722    8.791595   x
            x    S       177      138.299511   11.977089    8.791595   x
            x    S       178       34.574878   17.965633    8.791595   x
            x    S       179       19.016183   14.971361    8.791595   x
            x    S       180        3.457488   11.977089    8.791595   x
            x    S       181      159.044437    5.988544    8.791595   x
            x    S       182      143.485742    2.994272    8.791595   x
            x    S       183      127.927047   29.942722    8.791595   x
            x    S       184      153.858206   14.971361    8.791595   x
            x    S       185       39.761109    8.982817    8.791595   x
            x    S       186       24.202414    5.988544    8.791595   x
            x    S       187        8.643719    2.994272    8.791595   x
            x    S       188      138.299511   17.965633    8.791595   x
            x    S       189       34.574878   23.954178    8.791595   x
            x    S       190       19.016183   20.959906    8.791595   x
            x    S       191        3.457488   17.965633    8.791595   x
            x    S       192      143.485742   26.948450    8.791595   x
            x    S       193      159.044437   11.977089    8.791595   x
            x    S       194      143.485742    8.982817    8.791595   x
            x    S       195      127.927047    5.988544    8.791595   x
            x    S       196       39.761109   14.971361    8.791595   x
            x    S       197       24.202414   11.977089    8.791595   x
            x    S       198        8.643719    8.982817    8.791595   x
            x    S       199      138.299511   23.954178    8.791595   x
            x    S       200      164.230669    2.994272    8.791595   x
            x    S       201      148.671974   29.942722    8.791595   x
            x    S       202      143.485742   20.959906    8.791595   x
            x    S       203       19.016183   26.948450    8.791595   x
            x    S       204        3.457488   23.954178    8.791595   x
            x    S       205       29.388646    2.994272    8.791595   x
            x    S       206      159.044437   17.965633    8.791595   x
            x    S       207      153.858206   26.948450    8.791595   x
            x    S       208       13.829951    0.000000    8.791595   x
            x    S       209      127.927047   11.977089    8.791595   x
            x    S       210       39.761109   20.959906    8.791595   x
            x    S       211       24.202414   17.965633    8.791595   x
            x    S       212      143.485742   14.971361    8.791595   x
            x    S       213        8.643719   14.971361    8.791595   x
            x    S       214      164.230669    8.982817    8.791595   x
            x    S       215      148.671974    5.988544    8.791595   x
            x    S       216      133.113279    2.994272    8.791595   x
            x    S       217       29.388646    8.982817    8.791595   x
            x    S       218      159.044437   23.954178    8.791595   x
            x    S       219       13.829951    5.988544    8.791595   x
            x    S       220      127.927047   17.965633    8.791595   x
            x    S       221      133.113279   26.948450    8.791595   x
            x    S       222       39.761109   26.948450    8.791595   x
            x    S       223       24.202414   23.954178    8.791595   x
            x    S       224        8.643719   20.959906    8.791595   x
            x    S       225      164.230669   14.971361    8.791595   x
            x    S       226      148.671974   23.954178    8.791595   x
            x    S       227      148.671974   11.977089    8.791595   x
            x    S       228      133.113279    8.982817    8.791595   x
            x    S       229      133.113279   20.959906    8.791595   x
            x    S       230       29.388646   14.971361    8.791595   x
            x    S       231       13.829951   11.977089    8.791595   x
            x    S       232      127.927047   23.954178    8.791595   x
            x    S       233      153.858206    2.994272    8.791595   x
            x    S       234      138.299511   29.942722    8.791595   x
            x    S       235      148.671974   17.965633    8.791595   x
            x    S       236        8.643719   26.948450    8.791595   x
            x    S       237       34.574878    5.988544    8.791595   x
            x    S       238      164.230669   20.959906    8.791595   x
            x    S       239       19.016183    2.994272    8.791595   x
            x    S       240       34.574878    0.000000    8.791595   x
            x    Mo      241      115.825840   14.971361    5.822249   x
            x    Mo      242      100.267145   11.977089    5.822249   x
            x    Mo      243       58.777292   29.942722    5.822249   x
            x    Mo      244       84.708450    8.982817    5.822249   x
            x    Mo      245       43.218597   26.948450    5.822249   x
            x    Mo      246       69.149755    5.988544    5.822249   x
            x    Mo      247       53.591060    2.994272    5.822249   x
            x    Mo      248      110.639608   29.942722    5.822249   x
            x    Mo      249       95.080914   26.948450    5.822249   x
            x    Mo      250      121.012072    5.988544    5.822249   x
            x    Mo      251       79.522219   23.954178    5.822249   x
            x    Mo      252      105.453377    2.994272    5.822249   x
            x    Mo      253       63.963524   20.959906    5.822249   x
            x    Mo      254       48.404829   17.965633    5.822249   x
            x    Mo      255      115.825840   20.959906    5.822249   x
            x    Mo      256      100.267145   17.965633    5.822249   x
            x    Mo      257       84.708450   14.971361    5.822249   x
            x    Mo      258       69.149755   11.977089    5.822249   x
            x    Mo      259       53.591060    8.982817    5.822249   x
            x    Mo      260      121.012072   11.977089    5.822249   x
            x    Mo      261       79.522219   29.942722    5.822249   x
            x    Mo      262      105.453377    8.982817    5.822249   x
            x    Mo      263       63.963524   26.948450    5.822249   x
            x    Mo      264       89.894682    5.988544    5.822249   x
            x    Mo      265       48.404829   23.954178    5.822249   x
            x    Mo      266       74.335987    2.994272    5.822249   x
            x    Mo      267      115.825840   26.948450    5.822249   x
            x    Mo      268      100.267145   23.954178    5.822249   x
            x    Mo      269       84.708450   20.959906    5.822249   x
            x    Mo      270       69.149755   17.965633    5.822249   x
            x    Mo      271       53.591060   14.971361    5.822249   x
            x    Mo      272      121.012072   17.965633    5.822249   x
            x    Mo      273      105.453377   14.971361    5.822249   x
            x    Mo      274       89.894682   11.977089    5.822249   x
            x    Mo      275       48.404829    0.000000    5.822249   x
            x    Mo      276       74.335987    8.982817    5.822249   x
            x    Mo      277       58.777292    5.988544    5.822249   x
            x    Mo      278       43.218597    2.994272    5.822249   x
            x    Mo      279      100.267145    0.000000    5.822249   x
            x    Mo      280       84.708450   26.948450    5.822249   x
            x    Mo      281      110.639608    5.988544    5.822249   x
            x    Mo      282       69.149755   23.954178    5.822249   x
            x    Mo      283       95.080914    2.994272    5.822249   x
            x    Mo      284       53.591060   20.959906    5.822249   x
            x    Mo      285      121.012072   23.954178    5.822249   x
            x    Mo      286      105.453377   20.959906    5.822249   x
            x    Mo      287       89.894682   17.965633    5.822249   x
            x    Mo      288       74.335987   14.971361    5.822249   x
            x    Mo      289       58.777292   11.977089    5.822249   x
            x    Mo      290       43.218597    8.982817    5.822249   x
            x    Mo      291      110.639608   11.977089    5.822249   x
            x    Mo      292       69.149755   29.942722    5.822249   x
            x    Mo      293       95.080914    8.982817    5.822249   x
            x    Mo      294       53.591060   26.948450    5.822249   x
            x    Mo      295       79.522219    5.988544    5.822249   x
            x    Mo      296       63.963524    2.994272    5.822249   x
            x    Mo      297      121.012072   29.942722    5.822249   x
            x    Mo      298      105.453377   26.948450    5.822249   x
            x    Mo      299       89.894682   23.954178    5.822249   x
            x    Mo      300      115.825840    2.994272    5.822249   x
            x    Mo      301       74.335987   20.959906    5.822249   x
            x    Mo      302       58.777292   17.965633    5.822249   x
            x    Mo      303       43.218597   14.971361    5.822249   x
            x    Mo      304      110.639608   17.965633    5.822249   x
            x    Mo      305       95.080914   14.971361    5.822249   x
            x    Mo      306       79.522219   11.977089    5.822249   x
            x    Mo      307       63.963524    8.982817    5.822249   x
            x    Mo      308       48.404829    5.988544    5.822249   x
            x    Mo      309       89.894682   29.942722    5.822249   x
            x    Mo      310      115.825840    8.982817    5.822249   x
            x    Mo      311       74.335987   26.948450    5.822249   x
            x    Mo      312      100.267145    5.988544    5.822249   x
            x    Mo      313       58.777292   23.954178    5.822249   x
            x    Mo      314       84.708450    2.994272    5.822249   x
            x    Mo      315       43.218597   20.959906    5.822249   x
            x    Mo      316      110.639608   23.954178    5.822249   x
            x    Mo      317       95.080914   20.959906    5.822249   x
            x    Mo      318       79.522219   17.965633    5.822249   x
            x    Mo      319       63.963524   14.971361    5.822249   x
            x    Mo      320       48.404829   11.977089    5.822249   x
            x    S       321      117.554584   11.977089    2.864546   x
            x    S       322      101.995889    8.982817    2.864546   x
            x    S       323       60.506036   26.948450    2.864546   x
            x    S       324       86.437194    5.988544    2.864546   x
            x    S       325       44.947341   23.954178    2.864546   x
            x    S       326       70.878499    2.994272    2.864546   x
            x    S       327       55.319804    0.000000    2.864546   x
            x    S       328      112.368352   26.948450    2.864546   x
            x    S       329       96.809657   23.954178    2.864546   x
            x    S       330      122.740816    2.994272    2.864546   x
            x    S       331       81.250962   20.959906    2.864546   x
            x    S       332      107.182121    0.000000    2.864546   x
            x    S       333       65.692268   17.965633    2.864546   x
            x    S       334       50.133573   14.971361    2.864546   x
            x    S       335      117.554584   17.965633    2.864546   x
            x    S       336      101.995889   14.971361    2.864546   x
            x    S       337       86.437194   11.977089    2.864546   x
            x    S       338       70.878499    8.982817    2.864546   x
            x    S       339       55.319804    5.988544    2.864546   x
            x    S       340      122.740816    8.982817    2.864546   x
            x    S       341       81.250962   26.948450    2.864546   x
            x    S       342      107.182121    5.988544    2.864546   x
            x    S       343       65.692268   23.954178    2.864546   x
            x    S       344       91.623426    2.994272    2.864546   x
            x    S       345       50.133573   20.959906    2.864546   x
            x    S       346       76.064731   29.942722    2.864546   x
            x    S       347      117.554584   23.954178    2.864546   x
            x    S       348      101.995889   20.959906    2.864546   x
            x    S       349       86.437194   17.965633    2.864546   x
            x    S       350       70.878499   14.971361    2.864546   x
            x    S       351       55.319804   11.977089    2.864546   x
            x    S       352      122.740816   14.971361    2.864546   x
            x    S       353      107.182121   11.977089    2.864546   x
            x    S       354       91.623426    8.982817    2.864546   x
            x    S       355       50.133573   26.948450    2.864546   x
            x    S       356       76.064731    5.988544    2.864546   x
            x    S       357       60.506036    2.994272    2.864546   x
            x    S       358       44.947341   29.942722    2.864546   x
            x    S       359      101.995889   26.948450    2.864546   x
            x    S       360       86.437194   23.954178    2.864546   x
            x    S       361      112.368352    2.994272    2.864546   x
            x    S       362       70.878499   20.959906    2.864546   x
            x    S       363       96.809657   29.942722    2.864546   x
            x    S       364       55.319804   17.965633    2.864546   x
            x    S       365      122.740816   20.959906    2.864546   x
            x    S       366      107.182121   17.965633    2.864546   x
            x    S       367       91.623426   14.971361    2.864546   x
            x    S       368       76.064731   11.977089    2.864546   x
            x    S       369       60.506036    8.982817    2.864546   x
            x    S       370       44.947341    5.988544    2.864546   x
            x    S       371      112.368352    8.982817    2.864546   x
            x    S       372       70.878499   26.948450    2.864546   x
            x    S       373       96.809657    5.988544    2.864546   x
            x    S       374       55.319804   23.954178    2.864546   x
            x    S       375       81.250962    2.994272    2.864546   x
            x    S       376       65.692268   29.942722    2.864546   x
            x    S       377      122.740816   26.948450    2.864546   x
            x    S       378      107.182121   23.954178    2.864546   x
            x    S       379       91.623426   20.959906    2.864546   x
            x    S       380      117.554584   29.942722    2.864546   x
            x    S       381       76.064731   17.965633    2.864546   x
            x    S       382       60.506036   14.971361    2.864546   x
            x    S       383       44.947341   11.977089    2.864546   x
            x    S       384      112.368352   14.971361    2.864546   x
            x    S       385       96.809657   11.977089    2.864546   x
            x    S       386       81.250962    8.982817    2.864546   x
            x    S       387       65.692268    5.988544    2.864546   x
            x    S       388       50.133573    2.994272    2.864546   x
            x    S       389       91.623426   26.948450    2.864546   x
            x    S       390      117.554584    5.988544    2.864546   x
            x    S       391       76.064731   23.954178    2.864546   x
            x    S       392      101.995889    2.994272    2.864546   x
            x    S       393       60.506036   20.959906    2.864546   x
            x    S       394       86.437194    0.000000    2.864546   x
            x    S       395       44.947341   17.965633    2.864546   x
            x    S       396      112.368352   20.959906    2.864546   x
            x    S       397       96.809657   17.965633    2.864546   x
            x    S       398       81.250962   14.971361    2.864546   x
            x    S       399       65.692268   11.977089    2.864546   x
            x    S       400       50.133573    8.982817    2.864546   x
            x    S       401      117.554584   11.977089    8.779951   x
            x    S       402      101.995889    8.982817    8.779951   x
            x    S       403       60.506036   26.948450    8.779951   x
            x    S       404       86.437194    5.988544    8.779951   x
            x    S       405       44.947341   23.954178    8.779951   x
            x    S       406       70.878499    2.994272    8.779951   x
            x    S       407       55.319804    0.000000    8.779951   x
            x    S       408      112.368352   26.948450    8.779951   x
            x    S       409       96.809657   23.954178    8.779951   x
            x    S       410      122.740816    2.994272    8.779951   x
            x    S       411       81.250962   20.959906    8.779951   x
            x    S       412      107.182121    0.000000    8.779951   x
            x    S       413       65.692268   17.965633    8.779951   x
            x    S       414       50.133573   14.971361    8.779951   x
            x    S       415      117.554584   17.965633    8.779951   x
            x    S       416      101.995889   14.971361    8.779951   x
            x    S       417       86.437194   11.977089    8.779951   x
            x    S       418       70.878499    8.982817    8.779951   x
            x    S       419       55.319804    5.988544    8.779951   x
            x    S       420      122.740816    8.982817    8.779951   x
            x    S       421       81.250962   26.948450    8.779951   x
            x    S       422      107.182121    5.988544    8.779951   x
            x    S       423       65.692268   23.954178    8.779951   x
            x    S       424       91.623426    2.994272    8.779951   x
            x    S       425       50.133573   20.959906    8.779951   x
            x    S       426       76.064731   29.942722    8.779951   x
            x    S       427      117.554584   23.954178    8.779951   x
            x    S       428      101.995889   20.959906    8.779951   x
            x    S       429       86.437194   17.965633    8.779951   x
            x    S       430       70.878499   14.971361    8.779951   x
            x    S       431       55.319804   11.977089    8.779951   x
            x    S       432      122.740816   14.971361    8.779951   x
            x    S       433      107.182121   11.977089    8.779951   x
            x    S       434       91.623426    8.982817    8.779951   x
            x    S       435       50.133573   26.948450    8.779951   x
            x    S       436       76.064731    5.988544    8.779951   x
            x    S       437       60.506036    2.994272    8.779951   x
            x    S       438       44.947341   29.942722    8.779951   x
            x    S       439      101.995889   26.948450    8.779951   x
            x    S       440       86.437194   23.954178    8.779951   x
            x    S       441      112.368352    2.994272    8.779951   x
            x    S       442       70.878499   20.959906    8.779951   x
            x    S       443       96.809657   29.942722    8.779951   x
            x    S       444       55.319804   17.965633    8.779951   x
            x    S       445      122.740816   20.959906    8.779951   x
            x    S       446      107.182121   17.965633    8.779951   x
            x    S       447       91.623426   14.971361    8.779951   x
            x    S       448       76.064731   11.977089    8.779951   x
            x    S       449       60.506036    8.982817    8.779951   x
            x    S       450       44.947341    5.988544    8.779951   x
            x    S       451      112.368352    8.982817    8.779951   x
            x    S       452       70.878499   26.948450    8.779951   x
            x    S       453       96.809657    5.988544    8.779951   x
            x    S       454       55.319804   23.954178    8.779951   x
            x    S       455       81.250962    2.994272    8.779951   x
            x    S       456       65.692268   29.942722    8.779951   x
            x    S       457      122.740816   26.948450    8.779951   x
            x    S       458      107.182121   23.954178    8.779951   x
            x    S       459       91.623426   20.959906    8.779951   x
            x    S       460      117.554584   29.942722    8.779951   x
            x    S       461       76.064731   17.965633    8.779951   x
            x    S       462       60.506036   14.971361    8.779951   x
            x    S       463       44.947341   11.977089    8.779951   x
            x    S       464      112.368352   14.971361    8.779951   x
            x    S       465       96.809657   11.977089    8.779951   x
            x    S       466       81.250962    8.982817    8.779951   x
            x    S       467       65.692268    5.988544    8.779951   x
            x    S       468       50.133573    2.994272    8.779951   x
            x    S       469       91.623426   26.948450    8.779951   x
            x    S       470      117.554584    5.988544    8.779951   x
            x    S       471       76.064731   23.954178    8.779951   x
            x    S       472      101.995889    2.994272    8.779951   x
            x    S       473       60.506036   20.959906    8.779951   x
            x    S       474       86.437194    0.000000    8.779951   x
            x    S       475       44.947341   17.965633    8.779951   x
            x    S       476      112.368352   20.959906    8.779951   x
            x    S       477       96.809657   17.965633    8.779951   x
            x    S       478       81.250962   14.971361    8.779951   x
            x    S       479       65.692268   11.977089    8.779951   x
            x    S       480       50.133573    8.982817    8.779951   x
            xxxxxxxxxxxxxxxxxxxxxxxxxxxxxxxxxxxxxxxxxxxxxxxxxxxxxxxxxxxx
 

Determining parallel strategy ...
... using space-filling curve
... NGWF load balancing: max    110;  min    100;  average    105
... Projector load balancing: max    178;  min    162;  average    170
... done
Calculating Ewald energy ...
              Ewald: real-space energy =   32378.095394
        Ewald: reciprocal-space energy =    5718.072658
         Ewald: (sum_charge)**2 Energy =   21568.705369
         Ewald: (sum_charge**2) Energy =    2341.762288
                          Ewald Energy =   14185.700395
Basis initialisation ...... NGWF spheres initialised
... Projector spheres initialised
... NGWF tight boxes initialised
... Projector tight boxes initialised
... Tight-boxes gathered
... NGWF basis size (local,global):    5663844 181110656
... PAW projector initialisation
... done

============================= Charge Augmentation ==============================
                           Aug box size:   27 x  29 x  27
================================================================================

========================== Sparse matrix information ===========================
                        Overlap matrix filling:  28.71%
                        Density kernel filling: 100.00%
              NGWF-Proj overlap matrix filling:  12.81%
                    Aug Overlap matrix filling:  30.75%
                    Hamiltonian matrix filling:  30.75%
                  NGWF diagonal matrix filling:   0.28%
                             KS matrix filling: 100.00% 
                           KSKS matrix filling: 100.00% 
================================================================================

Sparse matrix initialisation ... done
NGWF initialisation ...... done
============ Calculation of NGWF S^-1 using Hotelling algorithm ================ 
         Iteration  |  Frobenius norm and Maximum abs value    (of I-S*S_n^-1)   
               1       0.57687681E+02     0.99728859E+00
               2       0.57427233E+02     0.99458582E+00
               3       0.56950015E+02     0.98920594E+00
               4       0.56126374E+02     0.97854730E+00
               5       0.54793156E+02     0.95762319E+00
               6       0.52703451E+02     0.91726989E+00
               7       0.49456804E+02     0.84205721E+00
               8       0.44659558E+02     0.81095238E+00
               9       0.38398496E+02     0.78884947E+00
              10       0.31831266E+02     0.76225841E+00
              11       0.26755980E+02     0.73597680E+00
              12       0.23602985E+02     0.71328994E+00
              13       0.21620407E+02     0.68779569E+00
              14       0.19972498E+02     0.65411658E+00
              15       0.18435584E+02     0.61245722E+00
              16       0.16847234E+02     0.57950832E+00
              17       0.15076303E+02     0.54633079E+00
              18       0.13130793E+02     0.50663675E+00
              19       0.11072902E+02     0.45607133E+00
              20       0.89687066E+01     0.38502696E+00
              21       0.68731310E+01     0.29756333E+00
              22       0.48794238E+01     0.20256634E+00
              23       0.31728871E+01     0.12029267E+00
              24       0.18574882E+01     0.60446355E-01
              25       0.88503224E+00     0.25055282E-01
              26       0.28145105E+00     0.69973389E-02
              27       0.36900426E-01     0.83464697E-03
              28       0.77589860E-03     0.16811433E-04
              29       0.43868007E-06     0.94673069E-08
              30       0.99788203E-12     0.60396133E-13
================================================================================
Calculating core density ... ... done
Up spin density kernel initialisation ... 
======= Optimisation of K by Palser-Manolopoulos canonical purification ======== 
         Iteration  |  Band structure energy |    c_n   
               1       -1052.97917968992397    0.5917555
               2       -1125.44850337710977    0.5786569
               3       -1200.47499893245345    0.5616444
               4       -1269.92989234217794    0.5462392
               5       -1330.05096855418924    0.5420530
               6       -1384.53424168969900    0.5564049
               7       -1432.72823537136469    0.5865316
               8       -1465.70990580046555    0.6076507
               9       -1485.02258671251866    0.5978674
              10       -1499.30162861027361    0.5721281
              11       -1510.92870212067601    0.5533420
              12       -1518.26480206277120    0.5469465
              13       -1521.62219414570291    0.5384682
              14       -1523.14058386391571    0.5197484
              15       -1524.03282976700939    0.5017583
              16       -1524.56332033536273    0.4897857
              17       -1524.82019727071975    0.4774687
              18       -1524.93679595031017    0.4646197
              19       -1524.98623570041082    0.4698220
              20       -1525.00868638765587    0.5045818
              21       -1525.02006210438913    0.5698552
              22       -1525.02421926221655    0.6183428
              23       -1525.02578836965267    0.6174343
              24       -1525.02671216930321    0.5924278
              25       -1525.02747933925070    0.5707019
              26       -1525.02800859243098    0.5413024
              27       -1525.02829750041064    0.5020494
              28       -1525.02842763096305    0.4781723
              29       -1525.02847220713147    0.4853449
              30       -1525.02848740525587    0.4975987
              31       -1525.02848954147521    0.4999532
              32       -1525.02848958309937    0.4999532
Termination criterion satisfied: band energy change below threshold.
Final occupancy bounds: [    0.00000000000222:    0.99999999999847]
Closest occupancy to 0.5:     0.99999999999867
================================================================================
... done

Writing density kernel to file "WMoS2.dkn" ... done

>>> Optimising kernel for current NGWFs:
   Initial electron number for spin 1:    4160.00000000
     Final electron number for spin 1:    4160.00000000

=================== Penalty functional idempotency correction ==================
 RMS occupancy error at iteration   1:  0.000000 (step -0.5000 Ne1=   4160.0000)
            Final RMS occupancy error   :  0.000000 (Ne1=   4160.0000)
               Final occupancy bounds   : [ -0.0000,  1.0000]
================================================================================

................................................................................
<<<<<<<<<<<<<< LNV (Original version) density kernel optimisation >>>>>>>>>>>>>>
~~~~~~~~~~~~~~~~~~~~~~~~~~~~~~~~~~~~~~~~~~~~~~~~~~~~~~~~~~~~~~~~~~~~~~~~~~~~~~~~
   iter  |      energy (Eh)       | rms gradient |  commutator  |   dE (Eh)
      ideal mu1:       0.430626372138
             Q0:  -13744.252342932159
             G0:   -3707.054971619133
   RMS gradient:       0.018120711070
========================= Kernel Line Step Protection ==========================
|  Iter |  Trial Step |   RMS Occupancy Error |   Occupancy Bounds | Accepted? |
    0        0.000000                0.000000    [ 1.0000:  0.0000]
    1        0.500000                0.625941    [ 2.8429: -1.8442]        No
    2        0.250000                0.156485    [ 1.7492: -0.7377]        No
    3        0.125000                0.039121    [ 1.2569: -0.2559]       Yes
================================================================================
     Trial step:       0.125000000000
             Q1:  -14065.367059948207
 Quadratic coef:     142.267154436344
 Linear coef   :    -463.381871452392
           Qmin:  -14121.575484808165
Quadratic minimum step length (  0.203570297589) accepted
========================= Kernel Line Step Protection ==========================
|  Iter |  Trial Step |   RMS Occupancy Error |   Occupancy Bounds | Accepted? |
    0        0.000000                0.000000    [ 1.0000:  0.0000]
    1        0.203570                0.103758    [ 1.5516: -0.5553]        No
    2        0.101785                0.025940    [ 1.1788: -0.1832]       Yes
================================================================================
    Initial Ne1:    4160.00000000
      Final Ne1:    4160.00000000

=================== Penalty functional idempotency correction ==================
 RMS occupancy error at iteration   1:  0.025940 (step -0.3443 Ne1=   4160.0000)
 RMS occupancy error at iteration   2:  0.003679 (step -0.4978 Ne1=   4160.0000)
 RMS occupancy error at iteration   3:  0.000100 (step -0.5013 Ne1=   4160.0000)
            Final RMS occupancy error   :  0.000000 (Ne1=   4160.0000)
               Final occupancy bounds   : [ -0.0000,  1.0000]
================================================================================

    1        -1.374425234293E+04     1.8121E-02     1.4636E-02
      ideal mu1:       0.087629747823
             Q0:  -14035.068489945181
             G0:   -2575.740784070774
   RMS gradient:       0.012019777215
========================= Kernel Line Step Protection ==========================
|  Iter |  Trial Step |   RMS Occupancy Error |   Occupancy Bounds | Accepted? |
    0        0.000000                0.000000    [ 1.0000: -0.0000]
    1        0.159519                0.077814    [ 1.3693: -0.3736]        No
    2        0.079759                0.026454    [ 1.1551: -0.1562]       Yes
================================================================================
     Trial step:       0.079759462132
             Q1:  -14185.960408413528
 Quadratic coef:      54.547781061827
 Linear coef   :    -205.439699530175
           Qmin:  -14228.501977620926
Quadratic minimum step length (  0.150196393109) accepted
    Initial Ne1:    4160.00030668
      Final Ne1:    4160.00000000

=================== Penalty functional idempotency correction ==================
 RMS occupancy error at iteration   1:  0.070513 (step -0.3064 Ne1=   4160.0000)
 RMS occupancy error at iteration   2:  0.015863 (step -0.5557 Ne1=   4160.0000)
 RMS occupancy error at iteration   3:  0.003435 (step -0.5354 Ne1=   4160.0000)
            Final RMS occupancy error   :  0.000164 (Ne1=   4160.0000)
               Final occupancy bounds   : [ -0.0001,  1.0001]
================================================================================

    2        -1.403506848995E+04     1.2020E-02     9.7083E-03    -2.9082E+02
      ideal mu1:      -0.380593642382
             Q0:  -14249.936440972961
             G0:    -291.523590251705
   RMS gradient:       0.004425237863
     Trial step:       0.109451283814
             Q1:  -14273.715724852060
 Quadratic coef:       8.128347336135
 Linear coef   :     -31.907631215234
           Qmin:  -14281.249599960442
Quadratic minimum step length (  0.214824185998) accepted
    Initial Ne1:    4160.75985926
      Final Ne1:    4160.00000000

=================== Penalty functional idempotency correction ==================
 RMS occupancy error at iteration   1:  0.025272 (step -0.4376 Ne1=   4160.0000)
 RMS occupancy error at iteration   2:  0.001474 (step -0.5114 Ne1=   4160.0000)
 RMS occupancy error at iteration   3:  0.000032 (step -0.5004 Ne1=   4160.0000)
            Final RMS occupancy error   :  0.000000 (Ne1=   4160.0000)
               Final occupancy bounds   : [ -0.0000,  1.0000]
================================================================================

    3        -1.424993644097E+04     4.4252E-03     3.5759E-03    -2.1487E+02
      ideal mu1:      -0.563638159751
             Q0:  -14283.862973511015
             G0:     -65.070020336512
   RMS gradient:       0.002211149199
     Trial step:       0.153338784891
             Q1:  -14291.468053039149
 Quadratic coef:       2.372678323098
 Linear coef   :      -9.977757851231
           Qmin:  -14294.352770080639
Quadratic minimum step length (  0.322415653641) accepted
    Initial Ne1:    4160.28487736
      Final Ne1:    4160.00000000

=================== Penalty functional idempotency correction ==================
 RMS occupancy error at iteration   1:  0.015702 (step -0.4619 Ne1=   4160.0000)
 RMS occupancy error at iteration   2:  0.000473 (step -0.5027 Ne1=   4160.0000)
 RMS occupancy error at iteration   3:  0.000004 (step -0.5000 Ne1=   4160.0000)
            Final RMS occupancy error   :  0.000000 (Ne1=   4160.0000)
               Final occupancy bounds   : [  0.0000,  1.0000]
================================================================================

    4        -1.428386297351E+04     2.2111E-03     1.7859E-03    -3.3927E+01
      ideal mu1:      -0.609814289511
    5        -1.429524440895E+04     1.7761E-03     1.4346E-03    -1.1381E+01
Finished density kernel iterations (   5)

Writing density kernel to file "WMoS2.dkn" ... done


>>> Density kernel optimised for the current NGWF basis:
     ~~~~~~~~~~~~~~~~~~~~~~~~~~~~~~~~~~~~~~~~~~~~~~~~~~~~~~~~~~~
     Total energy                =  -1.42952444089534E+04  Eh
     Estimated bandgap           =  -8.0999E-01  Eh
     RMS occupancy error         =   5.7638E-10
     [H,K] commutator            =   1.4346E-03
     Occupancy bounds            = [  0.000:  1.000]
     ~~~~~~~~~~~~~~~~~~~~~~~~~~~~~~~~~~~~~~~~~~~~~~~~~~~~~~~~~~~




################################################################################
########################### NGWF CG iteration  001 #############################
################################################################################
****** Reciprocal space K.E. preconditioning with k_zero =  3.0000 a0^-1 *******

>>> Checking for convergence of NGWFs:   NOT CONVERGED
  ========================================================================
         NGWF RMS gradient =  1.8646E-04 >  8.0000E-07  | above tolerance
  ========================================================================

>>> Improving NGWFs using line search:
============ Calculation of NGWF S^-1 using Hotelling algorithm ================ 
         Iteration  |  Frobenius norm and Maximum abs value    (of I-S*S_n^-1)   
               1       0.26470198E+00     0.72096812E-02
               2       0.35550007E-03     0.12390901E-04
               3       0.38375528E-08     0.13254953E-09
               4       0.10481248E-11     0.60396133E-13
================================================================================
============ Calculation of NGWF S^-1 using Hotelling algorithm ================ 
         Iteration  |  Frobenius norm and Maximum abs value    (of I-S*S_n^-1)   
               1       0.46561601E+01     0.12612893E+00
               2       0.11565497E+00     0.42251947E-02
               3       0.37289090E-03     0.15370647E-04
               4       0.43436137E-08     0.20412561E-09
               5       0.11033737E-11     0.85265128E-13
================================================================================
============ Calculation of NGWF S^-1 using Hotelling algorithm ================ 
         Iteration  |  Frobenius norm and Maximum abs value    (of I-S*S_n^-1)   
               1       0.22883157E-02     0.61820160E-04
               2       0.28844899E-07     0.10217018E-08
               3       0.11008016E-11     0.63948846E-13
================================================================================
------------------------------- NGWF line search -------------------------------
RMS gradient                =       0.00018646360679
Trial step length           =               0.122474
Gradient along search dir.  =        -15.58562385060
Functional at step 0        =  -14295.24440895340376
Functional at step 1        =  -14297.10152501727134
Rejected quadratic step     =               2.259868
Functional at new step 1    =  -14312.84692358926986
Functional predicted        =  -14312.84692741654180
Selected quadratic step     =               2.258815
Conjugate gradients coeff.  =               0.000000
--------------------------- NGWF line search finished --------------------------
                                               
Writing NGWFs to file "WMoS2.tightbox_ngwfs"....  done

>>> Optimising kernel for current NGWFs:
   Initial electron number for spin 1:    4170.63958038
     Final electron number for spin 1:    4160.00000000

=================== Penalty functional idempotency correction ==================
 RMS occupancy error at iteration   1:  0.003817 (step -0.4967 Ne1=   4160.0000)
 RMS occupancy error at iteration   2:  0.000122 (step -0.5013 Ne1=   4160.0000)
 RMS occupancy error at iteration   3:  0.000000 (step -0.5000 Ne1=   4160.0000)
            Final RMS occupancy error   :  0.000000 (Ne1=   4160.0000)
               Final occupancy bounds   : [  0.0000,  1.0000]
================================================================================

................................................................................
<<<<<<<<<<<<<< LNV (Original version) density kernel optimisation >>>>>>>>>>>>>>
~~~~~~~~~~~~~~~~~~~~~~~~~~~~~~~~~~~~~~~~~~~~~~~~~~~~~~~~~~~~~~~~~~~~~~~~~~~~~~~~
   iter  |      energy (Eh)       | rms gradient |  commutator  |   dE (Eh)
      ideal mu1:      -0.541242953382
             Q0:  -14312.701105814645
             G0:     -13.185582330128
   RMS gradient:       0.001080713011
     Trial step:       0.222348430530
             Q1:  -14315.101689953997
 Quadratic coef:       0.531209397377
 Linear coef   :      -2.931793536729
           Qmin:  -14316.746315380047
Quadratic minimum step length (  0.613580722356) accepted
    Initial Ne1:    4160.00000000
      Final Ne1:    4160.00000000

=================== Penalty functional idempotency correction ==================
 RMS occupancy error at iteration   1:  0.002912 (step -0.4870 Ne1=   4160.0000)
 RMS occupancy error at iteration   2:  0.000036 (step -0.5002 Ne1=   4160.0000)
            Final RMS occupancy error   :  0.000000 (Ne1=   4160.0000)
               Final occupancy bounds   : [  0.0000,  1.0000]
================================================================================

    1        -1.431270110581E+04     1.0807E-03     8.7288E-04
      ideal mu1:      -0.537912115759
             Q0:  -14316.749662964932
             G0:     -19.666164003039
   RMS gradient:       0.001315739548
     Trial step:       0.369362573387
             Q1:  -14320.267743767246
 Quadratic coef:       3.745864142507
 Linear coef   :      -7.263944944821
           Qmin:  -14320.271206603062
Quadratic minimum step length (  0.358132235406) accepted
    Initial Ne1:    4159.99986339
      Final Ne1:    4160.00000000

=================== Penalty functional idempotency correction ==================
 RMS occupancy error at iteration   1:  0.009019 (step -0.4562 Ne1=   4160.0000)
 RMS occupancy error at iteration   2:  0.000394 (step -0.5016 Ne1=   4160.0000)
 RMS occupancy error at iteration   3:  0.000002 (step -0.5000 Ne1=   4160.0000)
            Final RMS occupancy error   :  0.000000 (Ne1=   4160.0000)
               Final occupancy bounds   : [  0.0000,  1.0000]
================================================================================

    2        -1.431674966296E+04     1.3157E-03     1.0627E-03    -4.0486E+00
      ideal mu1:      -0.554079228871
             Q0:  -14320.631405324624
             G0:      -5.027314071481
   RMS gradient:       0.000627378822
     Trial step:       0.363704061130
             Q1:  -14321.646538261608
 Quadratic coef:       0.813321607389
 Linear coef   :      -1.828454544373
           Qmin:  -14321.659057236999
Quadratic minimum step length (  0.408827416693) accepted
    Initial Ne1:    4159.99996421
      Final Ne1:    4160.00000000

=================== Penalty functional idempotency correction ==================
 RMS occupancy error at iteration   1:  0.004316 (step -0.4746 Ne1=   4160.0000)
 RMS occupancy error at iteration   2:  0.000109 (step -0.5005 Ne1=   4160.0000)
 RMS occupancy error at iteration   3:  0.000000 (step -0.5000 Ne1=   4160.0000)
            Final RMS occupancy error   :  0.000000 (Ne1=   4160.0000)
               Final occupancy bounds   : [  0.0000,  1.0000]
================================================================================

    3        -1.432063140532E+04     6.2738E-04     5.0673E-04    -3.8817E+00
      ideal mu1:      -0.567870532927
             Q0:  -14321.718176122544
             G0:      -4.888591936608
   RMS gradient:       0.000631370309
     Trial step:       0.385606265189
             Q1:  -14322.183585643361
 Quadratic coef:       1.419662157889
 Linear coef   :      -1.885071678706
           Qmin:  -14322.343940360555
Quadratic minimum step length (  0.256010011114) accepted
    Initial Ne1:    4159.99997730
      Final Ne1:    4160.00000000

=================== Penalty functional idempotency correction ==================
 RMS occupancy error at iteration   1:  0.004074 (step -0.4730 Ne1=   4160.0000)
 RMS occupancy error at iteration   2:  0.000109 (step -0.5008 Ne1=   4160.0000)
 RMS occupancy error at iteration   3:  0.000000 (step -0.5000 Ne1=   4160.0000)
            Final RMS occupancy error   :  0.000000 (Ne1=   4160.0000)
               Final occupancy bounds   : [  0.0000,  1.0000]
================================================================================

    4        -1.432171817612E+04     6.3137E-04     5.0995E-04    -1.0868E+00
      ideal mu1:      -0.567977489338
    5        -1.432238521681E+04     5.4839E-04     4.4293E-04    -6.6704E-01
Finished density kernel iterations (   5)

Writing density kernel to file "WMoS2.dkn" ... done


>>> Density kernel optimised for the current NGWF basis:
     ~~~~~~~~~~~~~~~~~~~~~~~~~~~~~~~~~~~~~~~~~~~~~~~~~~~~~~~~~~~
     Total energy                =  -1.43223852168122E+04  Eh
     Estimated bandgap           =  -6.5762E-01  Eh
     RMS occupancy error         =   6.8544E-12
     [H,K] commutator            =   4.4293E-04
     Occupancy bounds            = [  0.000:  1.000]
     ~~~~~~~~~~~~~~~~~~~~~~~~~~~~~~~~~~~~~~~~~~~~~~~~~~~~~~~~~~~




################################################################################
########################### NGWF CG iteration  002 #############################
################################################################################
****** Reciprocal space K.E. preconditioning with k_zero =  3.0000 a0^-1 *******

>>> Checking for convergence of NGWFs:   NOT CONVERGED
  ========================================================================
         NGWF RMS gradient =  1.0613E-04 >  8.0000E-07  | above tolerance
  Maximum change in energy =  5.6543E-02 >  2.0000E-05  | above tolerance
  ========================================================================

>>> Improving NGWFs using line search:
============ Calculation of NGWF S^-1 using Hotelling algorithm ================ 
         Iteration  |  Frobenius norm and Maximum abs value    (of I-S*S_n^-1)   
               1       0.61913649E+00     0.14799576E-01
               2       0.27243036E-02     0.52150754E-04
               3       0.46272602E-06     0.66630629E-08
               4       0.11060418E-11     0.67501560E-13
================================================================================
============ Calculation of NGWF S^-1 using Hotelling algorithm ================ 
         Iteration  |  Frobenius norm and Maximum abs value    (of I-S*S_n^-1)   
               1       0.12143607E+01     0.28472872E-01
               2       0.10008427E-01     0.23560078E-03
               3       0.50454236E-05     0.11604733E-06
               4       0.33127098E-11     0.53290705E-13
================================================================================
[...]
                 Mid-gap level:       0.081338063 Eh

                        Orbital | Energy (Eh) | Occupancy
                            1    -2.670532528   1.0000000
                        .......   ...........   .........
                         1981     0.020347631   1.0000000
                         1982     0.020434532   1.0000000
                         1983     0.020434725   1.0000000
                         1984     0.020459018   1.0000000
                         1985     0.020469402   1.0000000
                         1986     0.020469548   1.0000000
                         1987     0.020507457   1.0000000
                         1988     0.020507681   1.0000000
                         1989     0.020651031   1.0000000
                         1990     0.020651376   1.0000000
                         1991     0.022272420   1.0000000
                         1992     0.022493821   1.0000000
                         1993     0.022494178   1.0000000
                         1994     0.022645221   1.0000000
                         1995     0.022645480   1.0000000
                         1996     0.023185154   1.0000000
                         1997     0.023185319   1.0000000
                         1998     0.023234923   1.0000000
                         1999     0.023235048   1.0000000
                         2000     0.025435303   1.0000000
                         2001     0.025443109   1.0000000
                         2002     0.025463821   1.0000000
                         2003     0.025464029   1.0000000
                         2004     0.025572965   1.0000000
                         2005     0.025573218   1.0000000
                         2006     0.025741113   1.0000000
                         2007     0.025741384   1.0000000
                         2008     0.025882830   1.0000000
                         2009     0.025883228   1.0000000
                         2010     0.026653958   1.0000000
                         2011     0.026654027   1.0000000
                         2012     0.026707369   1.0000000
                         2013     0.026707447   1.0000000
                         2014     0.029463380   1.0000000
                         2015     0.029463529   1.0000000
                         2016     0.029555326   1.0000000
                         2017     0.029555379   1.0000000
                         2018     0.029687441   1.0000000
                         2019     0.029687842   1.0000000
                         2020     0.029803646   1.0000000
                         2021     0.029803815   1.0000000
                         2022     0.029941231   1.0000000
                         2023     0.029941387   1.0000000
                         2024     0.030016037   1.0000000
                         2025     0.030016061   1.0000000
                         2026     0.031712168   1.0000000
                         2027     0.031734152   1.0000000
                         2028     0.032392827   1.0000000
                         2029     0.032392850   1.0000000
                         2030     0.032607167   1.0000000
                         2031     0.032607269   1.0000000
                         2032     0.032846854   1.0000000
                         2033     0.032847037   1.0000000
                         2034     0.032885676   1.0000000
                         2035     0.032885846   1.0000000
                         2036     0.033725392   1.0000000
                         2037     0.033725555   1.0000000
                         2038     0.033816102   1.0000000
                         2039     0.033816136   1.0000000
                         2040     0.033957614   1.0000000
                         2041     0.033958214   1.0000000
                         2042     0.034460673   1.0000000
                         2043     0.034460899   1.0000000
                         2044     0.035248724   1.0000000
                         2045     0.035248776   1.0000000
                         2046     0.035865360   1.0000000
                         2047     0.035865652   1.0000000
                         2048     0.035947525   1.0000000
                         2049     0.035947724   1.0000000
                         2050     0.036794634   1.0000000
                         2051     0.036794995   1.0000000
                         2052     0.036933804   1.0000000
                         2053     0.036997139   1.0000000
                         2054     0.037248187   1.0000000
                         2055     0.037248704   1.0000000
                         2056     0.038586272   1.0000000
                         2057     0.038586626   1.0000000
                         2058     0.038624461   1.0000000
                         2059     0.038624861   1.0000000
                         2060     0.038867708   1.0000000
                         2061     0.038867972   1.0000000
                         2062     0.040704159   1.0000000
                         2063     0.040849134   1.0000000
                         2064     0.040850234   1.0000000
                         2065     0.040850543   1.0000000
                         2066     0.041306069   1.0000000
                         2067     0.041306544   1.0000000
                         2068     0.042442817   1.0000000
                         2069     0.042443255   1.0000000
                         2070     0.043077363   1.0000000
                         2071     0.043314630   1.0000000
                         2072     0.044141852   1.0000000
                         2073     0.044142181   1.0000000
                         2074     0.044385850   1.0000000
                         2075     0.044533733   1.0000000
                         2076     0.045425043   1.0000000
                         2077     0.045519885   1.0000000
                         2078     0.045520382   1.0000000
                         2079     0.046258386   1.0000000
                         2080     0.046800893   1.0000000
                        .......   --- gap ---   .........
                         2081     0.115875234   0.0000000
                         2082     0.115876407   0.0000000
                         2083     0.117809790   0.0000000
                         2084     0.117810492   0.0000000
                         2085     0.118254175   0.0000000
                         2086     0.118254400   0.0000000
                         2087     0.118337862   0.0000000
                         2088     0.118338145   0.0000000
                         2089     0.119916946   0.0000000
                         2090     0.119917727   0.0000000
                         2091     0.120102035   0.0000000
                         2092     0.120103361   0.0000000
                         2093     0.120558648   0.0000000
                         2094     0.120559039   0.0000000
                         2095     0.120757975   0.0000000
                         2096     0.120758884   0.0000000
                         2097     0.121732865   0.0000000
                         2098     0.121733542   0.0000000
                         2099     0.122159984   0.0000000
                         2100     0.122160616   0.0000000
                         2101     0.122587418   0.0000000
                         2102     0.122588273   0.0000000
                         2103     0.123158637   0.0000000
                         2104     0.123159376   0.0000000
                         2105     0.123719788   0.0000000
                         2106     0.123720094   0.0000000
                         2107     0.123863369   0.0000000
                         2108     0.123863578   0.0000000
                         2109     0.124540775   0.0000000
                         2110     0.124541120   0.0000000
                         2111     0.125081635   0.0000000
                         2112     0.125082370   0.0000000
                         2113     0.125107392   0.0000000
                         2114     0.125107614   0.0000000
                         2115     0.125263309   0.0000000
                         2116     0.125263966   0.0000000
                         2117     0.126104657   0.0000000
                         2118     0.126104875   0.0000000
                         2119     0.126321578   0.0000000
                         2120     0.126322086   0.0000000
                         2121     0.126494844   0.0000000
                         2122     0.126569738   0.0000000
                         2123     0.126739876   0.0000000
                         2124     0.126740137   0.0000000
                         2125     0.126799918   0.0000000
                         2126     0.126800325   0.0000000
                         2127     0.127001277   0.0000000
                         2128     0.127001728   0.0000000
                         2129     0.127108531   0.0000000
                         2130     0.127109063   0.0000000
                         2131     0.127245083   0.0000000
                         2132     0.127245641   0.0000000
                         2133     0.127820147   0.0000000
                         2134     0.127820443   0.0000000
                         2135     0.128154622   0.0000000
                         2136     0.128360700   0.0000000
                         2137     0.128431674   0.0000000
                         2138     0.128432052   0.0000000
                         2139     0.128557492   0.0000000
                         2140     0.128557776   0.0000000
                         2141     0.128751628   0.0000000
                         2142     0.128752161   0.0000000
                         2143     0.128917708   0.0000000
                         2144     0.128969859   0.0000000
                         2145     0.129037399   0.0000000
                         2146     0.129038037   0.0000000
                         2147     0.129198123   0.0000000
                         2148     0.129198229   0.0000000
                         2149     0.129202745   0.0000000
                         2150     0.129203287   0.0000000
                         2151     0.129371006   0.0000000
                         2152     0.129371192   0.0000000
                         2153     0.129570086   0.0000000
                         2154     0.129570631   0.0000000
                         2155     0.129590144   0.0000000
                         2156     0.129700271   0.0000000
                         2157     0.129723452   0.0000000
                         2158     0.129723766   0.0000000
                         2159     0.129877060   0.0000000
                         2160     0.129877370   0.0000000
                         2161     0.130302290   0.0000000
                         2162     0.130592077   0.0000000
                         2163     0.130592501   0.0000000
                         2164     0.130710587   0.0000000
                         2165     0.130718025   0.0000000
                         2166     0.130856265   0.0000000
                         2167     0.130857051   0.0000000
                         2168     0.130867641   0.0000000
                         2169     0.130868418   0.0000000
                         2170     0.131011659   0.0000000
                         2171     0.131118584   0.0000000
                         2172     0.131906192   0.0000000
                         2173     0.131906822   0.0000000
                         2174     0.132090250   0.0000000
                         2175     0.132090464   0.0000000
                         2176     0.132759022   0.0000000
                         2177     0.132759486   0.0000000
                         2178     0.132920888   0.0000000
                         2179     0.133090725   0.0000000
                         2180     0.133091186   0.0000000
                        .......   ...........   .........
                         3360     0.577339792   0.0000000

================================================================================

===================== Writing canonical molecular orbitals =====================
| Orbital  Energy (eV)  Norm     |
| HOMO-5    1.21182454  1.000000 | Writing "WMoS2_HOMO-5.cube" ... done
| HOMO-4    1.23607832  1.000000 | Writing "WMoS2_HOMO-4.cube" ... done
| HOMO-3    1.23865910  1.000000 | Writing "WMoS2_HOMO-3.cube" ... done
| HOMO-2    1.23867263  1.000000 | Writing "WMoS2_HOMO-2.cube" ... done
| HOMO-1    1.25875474  1.000000 | Writing "WMoS2_HOMO-1.cube" ... done
| HOMO      1.27351709  1.000000 | Writing "WMoS2_HOMO.cube" ... done
| LUMO      3.15312556  1.000000 | Writing "WMoS2_LUMO.cube" ... done
| LUMO+1    3.15315748  1.000000 | Writing "WMoS2_LUMO+1.cube" ... done
| LUMO+2    3.20576749  1.000000 | Writing "WMoS2_LUMO+2.cube" ... done
| LUMO+3    3.20578662  1.000000 | Writing "WMoS2_LUMO+3.cube" ... done
| LUMO+4    3.21785983  1.000000 | Writing "WMoS2_LUMO+4.cube" ... done
| LUMO+5    3.21786595  1.000000 | Writing "WMoS2_LUMO+5.cube" ... done
================================================================================
 
===================== Density of States (DOS) calculation ======================
Writing "WMoS2_DOS.txt" ...  done
================================================================================
 
Writing bands to file "WMoS2.val_bands" ... done

------------------------------ TIMING INFORMATION ------------------------------
AVERAGE TIME:   65337.285s on     32 node(s)                                    
TOTAL TIME:     65337.292s on     32 node(s)                                    
================= AVERAGE TIMINGS FROM ALL NODES (CUMULATIVE) ==================
|| TAG                                    #calls    cpu time   %total  Gflops ||
|| linalg_invert_sym_matrix             :     4        0.06s   0.000%  ------ || (1 nodes only)
|| work_imbalance                       :     1        0.00s   0.000%  ------ ||
|| paw_tcore_hartree_on_grid            :     4        0.12s   0.000%  ------ ||
|| paw_tcore_density                    :     4        0.17s   0.000%  ------ ||
|| paw_dij_hartree                      :   276        0.39s   0.001%  ------ ||
|| pseudo_make_structure_factor         :     4        0.51s   0.001%  ------ ||
|| ewald_calculate_forces_realspace     :     4        0.57s   0.001%  ------ ||
|| paw_sphere_density_on_grid           :     1        0.59s   0.001%  ------ ||
|| restart_kernel_read                  :     4        1.16s   0.002%  ------ ||
|| sparse_init                          :     4        1.52s   0.002%  ------ ||
|| basis_extract_function_from_box      :  5460        2.28s   0.003%  ------ ||
|| restart_kernel_write                 :    24        2.33s   0.004%  ------ ||
|| dense_eigensolve                     :     1        2.79s   0.004%  ------ ||
|| paw_tcore_hartree_calc_forces        :     4        4.11s   0.006%  ------ ||
|| paw_nlcc_calculate_forces            :     4        4.69s   0.007%  ------ ||
|| paw_dataset_init                     :     3        5.48s   0.008%  ------ ||
|| augmentation_density_forces          :     4        8.52s   0.013%  ------ ||
|| hartree_on_grid                      :   252       11.85s   0.018%  ------ ||
|| integrals_grad                       :     4       14.63s   0.022%  ------ ||
|| nonsc_forces_ngwfs_calc              :     4       14.63s   0.022%  ------ ||
|| paw_species_calc_proj_prec_mat       :     4       15.79s   0.024%  ------ ||
|| ngwf_gradient_coeffs                 :    24       24.66s   0.038%  ------ ||
|| sparse_hotelling_invert              :    48       25.57s   0.039%  ------ ||
|| fourier_apply_cell_backward          :  1280       26.25s   0.040%  45.517 ||
|| fourier_apply_cell_forward           :  1284       32.76s   0.050%  36.576 ||
|| sparse_trace                         :  4390       36.38s   0.056%  ------ ||
|| eigenstates_calculate                :     1       39.31s   0.060%  ------ ||
|| restart_ngwfs_tightbox_input         :     4       47.78s   0.073%  ------ ||
|| ewald_calculate_energy               :     4       53.21s   0.081%  ------ ||
|| kernel_purify                        :   385       54.67s   0.084%  ------ ||
|| basis_copy_function_to_box           : 49980       58.64s   0.090%  ------ ||
|| kernel_fix                           :   120       63.27s   0.097%  ------ ||
|| fourier_apply_box_pair               :  7787       64.15s   0.098% 354.576 ||
|| lnv_gradient_norm                    :   120       67.56s   0.103%  ------ ||
|| aug_nonlocal_mat                     :   248       78.31s   0.120%  ------ ||
|| paw_dij_xc                           :   276       81.95s   0.125%  ------ ||
|| xc_energy_potential                  :   256      138.53s   0.212%  ------ ||
|| ewald_calculate_forces_recipspace    :     4      155.38s   0.238%  ------ ||
|| ewald_calculate_forces               :     4      156.06s   0.239%  ------ ||
|| restart_ngwfs_tightbox_output        :    20      199.58s   0.305%  ------ ||
|| projectors_init_fftbox_recip         :   448      227.72s   0.349%  ------ ||
|| sparse_product                       :  7038      304.66s   0.466%  ------ ||
|| cell_grid_extract_box                : 23091      356.45s   0.546%  ------ ||
|| properties_calculate                 :     1      391.99s   0.600%  ------ ||
|| augmentation_screen_dij              :   266      425.89s   0.652%  ------ ||
|| projectors_func_grad_ovlp_box        :    12      598.09s   0.915%  ------ ||
|| aug_nl_calculate_forces              :     4      602.30s   0.922%  ------ ||
|| cell_grid_deposit_box                : 47958      641.45s   0.982%  ------ ||
|| density_fftbox_deposit_to_cell       : 29041      779.55s   1.193%  ------ ||
|| function_ops_brappd_ketppd           :    48      898.14s   1.375%  ------ ||
|| augmentation_density_on_grid         :   257     1003.69s   1.536%  ------ ||
|| density_fftbox_interpolate_multiply  : 29041     1538.07s   2.354%  ------ ||
|| potential_apply_to_ngwf_batch        :  1080     1548.31s   2.370%  ------ ||
|| forces_calculate                     :     4     1646.50s   2.520%  ------ ||
|| projectors_gradient_batch            :   192     1781.24s   2.726%  ------ ||
|| fourier_apply_box                    : 139.0k    1797.03s   2.750% 812.477 ||
|| hamiltonian_energy_components        :     7     1865.47s   2.855%  ------ ||
|| integrals_kinetic                    :    48     2318.78s   3.549%  ------ ||
|| projectors_func_ovlp_box             :    48     2356.80s   3.607%  ------ ||
|| density_batch_interp_deposit         :  2056     2790.04s   4.270%  ------ ||
|| basis_dot_function_with_box          : 20.51M    5477.93s   8.384%  ------ ||
|| projectors_grad_precond_batch        :   192     6041.78s   9.247%  ------ ||
|| integrals_locpot_mat_els_batch       :  1080     8677.40s  13.281%  ------ ||
|| integrals_locpot_dbl_grid            :   135    10227.45s  15.653%  ------ ||
|| basis_add_function_to_box            : 35.78M   13313.38s  20.376%  ------ ||
|| ngwf_gradient_batch                  :   192    17094.38s  26.163%  ------ ||
|| ngwf_gradient_lnv                    :    24    18620.29s  28.499%  ------ ||
|| density_batch_row_sums               :  2056    24519.50s  37.528%  ------ ||
|| density_on_dbl_grid                  :   257    27447.59s  42.009%  ------ ||
|| hamiltonian_lhxc_calculate           :   245    27702.45s  42.399%  ------ ||
|| lnv_denskernel_optimise_cg           :    24    33975.34s  52.000%  ------ ||
|| ngwf_cg_optimise                     :     4    62632.51s  95.860%  ------ ||
|| total_time                           :     1    65337.28s 100.000%  ------ ||
================================================================================
Overhead of generating timer report: 
- 0 ms averaging over threads,
- 8 ms ensuring consistency across MPI ranks,
- 0 ms printing in order.

Job completed: 28-04-2016 19:26 (+0100)

